define                  = -DPOSRES_RECEPTOR
integrator              = md
nsteps                  = 50000
dt                      = 0.002
nstenergy               = 500
nstlog                  = 500
nstxout-compressed      = 5000
continuation            = no
constraint_algorithm    = lincs
constraints             = h-bonds
cutoff-scheme           = Verlet
ns_type                 = grid
nstlist                 = 20
rcoulomb                = 1.0
rvdw                    = 1.0
DispCorr                = EnerPres
coulombtype             = PME
pme_order               = 4
fourierspacing          = 0.16
tcoupl                  = V-rescale
tc-grps                 = Protein non-Protein
tau_t                   = 0.1 0.1
ref_t                   = 300 300
pcoupl                  = no
pbc                     = xyz
gen_vel                 = yes
gen_temp                = 300
gen_seed                = -1
